# vtk DataFile Version 2.0
Generated by FullSWOF_2D version 1.07.01, 2017-05-09
ASCII
DATASET RECTILINEAR_GRID
DIMENSIONS 101 381 1
X_COORDINATES 101 float
0 0.05 0.1 0.15 0.2 0.25 0.3 0.35 0.4 0.45 0.5 0.55 0.6 0.65 0.7 0.75 0.8 0.85 0.9 0.95 1 1.05 1.1 1.15 1.2 1.25 1.3 1.35 1.4 1.45 1.5 1.55 1.6 1.65 1.7 1.75 1.8 1.85 1.9 1.95 2 2.05 2.1 2.15 2.2 2.25 2.3 2.35 2.4 2.45 2.5 2.55 2.6 2.65 2.7 2.75 2.8 2.85 2.9 2.95 3 3.05 3.1 3.15 3.2 3.25 3.3 3.35 3.4 3.45 3.5 3.55 3.6 3.65 3.7 3.75 3.8 3.85 3.9 3.95 4 4.05 4.1 4.15 4.2 4.25 4.3 4.35 4.4 4.45 4.5 4.55 4.6 4.65 4.7 4.75 4.8 4.85 4.9 4.95 5 
Y_COORDINATES 381 float
0 0.05 0.1 0.15 0.2 0.25 0.3 0.35 0.4 0.45 0.5 0.55 0.6 0.65 0.7 0.75 0.8 0.85 0.9 0.95 1 1.05 1.1 1.15 1.2 1.25 1.3 1.35 1.4 1.45 1.5 1.55 1.6 1.65 1.7 1.75 1.8 1.85 1.9 1.95 2 2.05 2.1 2.15 2.2 2.25 2.3 2.35 2.4 2.45 2.5 2.55 2.6 2.65 2.7 2.75 2.8 2.85 2.9 2.95 3 3.05 3.1 3.15 3.2 3.25 3.3 3.35 3.4 3.45 3.5 3.55 3.6 3.65 3.7 3.75 3.8 3.85 3.9 3.95 4 4.05 4.1 4.15 4.2 4.25 4.3 4.35 4.4 4.45 4.5 4.55 4.6 4.65 4.7 4.75 4.8 4.85 4.9 4.95 5 5.05 5.1 5.15 5.2 5.25 5.3 5.35 5.4 5.45 5.5 5.55 5.6 5.65 5.7 5.75 5.8 5.85 5.9 5.95 6 6.05 6.1 6.15 6.2 6.25 6.3 6.35 6.4 6.45 6.5 6.55 6.6 6.65 6.7 6.75 6.8 6.85 6.9 6.95 7 7.05 7.1 7.15 7.2 7.25 7.3 7.35 7.4 7.45 7.5 7.55 7.6 7.65 7.7 7.75 7.8 7.85 7.9 7.95 8 8.05 8.1 8.15 8.2 8.25 8.3 8.35 8.4 8.45 8.5 8.55 8.6 8.65 8.7 8.75 8.8 8.85 8.9 8.95 9 9.05 9.1 9.15 9.2 9.25 9.3 9.35 9.4 9.45 9.5 9.55 9.6 9.65 9.7 9.75 9.8 9.85 9.9 9.95 10 10.05 10.1 10.15 10.2 10.25 10.3 10.35 10.4 10.45 10.5 10.55 10.6 10.65 10.7 10.75 10.8 10.85 10.9 10.95 11 11.05 11.1 11.15 11.2 11.25 11.3 11.35 11.4 11.45 11.5 11.55 11.6 11.65 11.7 11.75 11.8 11.85 11.9 11.95 12 12.05 12.1 12.15 12.2 12.25 12.3 12.35 12.4 12.45 12.5 12.55 12.6 12.65 12.7 12.75 12.8 12.85 12.9 12.95 13 13.05 13.1 13.15 13.2 13.25 13.3 13.35 13.4 13.45 13.5 13.55 13.6 13.65 13.7 13.75 13.8 13.85 13.9 13.95 14 14.05 14.1 14.15 14.2 14.25 14.3 14.35 14.4 14.45 14.5 14.55 14.6 14.65 14.7 14.75 14.8 14.85 14.9 14.95 15 15.05 15.1 15.15 15.2 15.25 15.3 15.35 15.4 15.45 15.5 15.55 15.6 15.65 15.7 15.75 15.8 15.85 15.9 15.95 16 16.05 16.1 16.15 16.2 16.25 16.3 16.35 16.4 16.45 16.5 16.55 16.6 16.65 16.7 16.75 16.8 16.85 16.9 16.95 17 17.05 17.1 17.15 17.2 17.25 17.3 17.35 17.4 17.45 17.5 17.55 17.6 17.65 17.7 17.75 17.8 17.85 17.9 17.95 18 18.05 18.1 18.15 18.2 18.25 18.3 18.35 18.4 18.45 18.5 18.55 18.6 18.65 18.7 18.75 18.8 18.85 18.9 18.95 19 
Z_COORDINATES 1 float
0

CELL_DATA 38000
SCALARS z double 1
LOOKUP_TABLE default
1 0.99925 0.9985 0.99775 0.997 0.99625 0.9955 0.99475 0.994 0.99325 0.7925 0.79175 0.791 0.79025 0.7895 0.78875 0.788 0.78725 0.7865 0.78575 0.785 0.78425 0.7835 0.78275 0.782 0.78125 0.7805 0.77975 0.779 0.77825 0.7775 0.77675 0.776 0.77525 0.7745 0.77375 0.773 0.77225 0.7715 0.77075 0.77 0.76925 0.7685 0.76775 0.767 0.76625 0.7655 0.76475 0.764 0.76325 0.7625 0.76175 0.761 0.76025 0.7595 0.75875 0.758 0.75725 0.7565 0.75575 0.755 0.75425 0.7535 0.75275 0.752 0.75125 0.7505 0.74975 0.749 0.74825 0.7475 0.74675 0.746 0.74525 0.7445 0.74375 0.743 0.74225 0.7415 0.74075 0.74 0.73925 0.7385 0.73775 0.737 0.73625 0.7355 0.73475 0.734 0.73325 0.9325 0.93175 0.931 0.93025 0.9295 0.92875 0.928 0.92725 0.9265 0.92575 1.0015 1.00075 1 0.99925 0.9985 0.99775 0.997 0.99625 0.9955 0.99475 0.794 0.79325 0.7925 0.79175 0.791 0.79025 0.7895 0.78875 0.788 0.78725 0.7865 0.78575 0.785 0.78425 0.7835 0.78275 0.782 0.78125 0.7805 0.77975 0.779 0.77825 0.7775 0.77675 0.776 0.77525 0.7745 0.77375 0.773 0.77225 0.7715 0.77075 0.77 0.76925 0.7685 0.76775 0.767 0.76625 0.7655 0.76475 0.764 0.76325 0.7625 0.76175 0.761 0.76025 0.7595 0.75875 0.758 0.75725 0.7565 0.75575 0.755 0.75425 0.7535 0.75275 0.752 0.75125 0.7505 0.74975 0.749 0.74825 0.7475 0.74675 0.746 0.74525 0.7445 0.74375 0.743 0.74225 0.7415 0.74075 0.74 0.73925 0.7385 0.73775 0.737 0.73625 0.7355 0.73475 0.934 0.93325 0.9325 0.93175 0.931 0.93025 0.9295 0.92875 0.928 0.92725 1.003 1.00225 1.0015 1.00075 1 0.99925 0.9985 0.99775 0.997 0.99625 0.7955 0.79475 0.794 0.79325 0.7925 0.79175 0.791 0.79025 0.7895 0.78875 0.788 0.78725 0.7865 0.78575 0.785 0.78425 0.7835 0.78275 0.782 0.78125 0.7805 0.77975 0.779 0.77825 0.7775 0.77675 0.776 0.77525 0.7745 0.77375 0.773 0.77225 0.7715 0.77075 0.77 0.76925 0.7685 0.76775 0.767 0.76625 0.7655 0.76475 0.764 0.76325 0.7625 0.76175 0.761 0.76025 0.7595 0.75875 0.758 0.75725 0.7565 0.75575 0.755 0.75425 0.7535 0.75275 0.752 0.75125 0.7505 0.74975 0.749 0.74825 0.7475 0.74675 0.746 0.74525 0.7445 0.74375 0.743 0.74225 0.7415 0.74075 0.74 0.73925 0.7385 0.73775 0.737 0.73625 0.9355 0.93475 0.934 0.93325 0.9325 0.93175 0.931 0.93025 0.9295 0.92875 1.0045 1.00375 1.003 1.00225 1.0015 1.00075 1 0.99925 0.9985 0.99775 0.797 0.79625 0.7955 0.79475 0.794 0.79325 0.7925 0.79175 0.791 0.79025 0.7895 0.78875 0.788 0.78725 0.7865 0.78575 0.785 0.78425 0.7835 0.78275 0.782 0.78125 0.7805 0.77975 0.779 0.77825 0.7775 0.77675 0.776 0.77525 0.7745 0.77375 0.773 0.77225 0.7715 0.77075 0.77 0.76925 0.7685 0.76775 0.767 0.76625 0.7655 0.76475 0.764 0.76325 0.7625 0.76175 0.761 0.76025 0.7595 0.75875 0.758 0.75725 0.7565 0.75575 0.755 0.75425 0.7535 0.75275 0.752 0.75125 0.7505 0.74975 0.749 0.74825 0.7475 0.74675 0.746 0.74525 0.7445 0.74375 0.743 0.74225 0.7415 0.74075 0.74 0.73925 0.7385 0.73775 0.937 0.93625 0.9355 0.93475 0.934 0.93325 0.9325 0.93175 0.931 0.93025 1.006 1.00525 1.0045 1.00375 1.003 1.00225 1.0015 1.00075 1 0.99925 0.7985 0.79775 0.797 0.79625 0.7955 0.79475 0.794 0.79325 0.7925 0.79175 0.791 0.79025 0.7895 0.78875 0.788 0.78725 0.7865 0.78575 0.785 0.78425 0.7835 0.78275 0.782 0.78125 0.7805 0.77975 0.779 0.77825 0.7775 0.77675 0.776 0.77525 0.7745 0.77375 0.773 0.77225 0.7715 0.77075 0.77 0.76925 0.7685 0.76775 0.767 0.76625 0.7655 0.76475 0.764 0.76325 0.7625 0.76175 0.761 0.76025 0.7595 0.75875 0.758 0.75725 0.7565 0.75575 0.755 0.75425 0.7535 0.75275 0.752 0.75125 0.7505 0.74975 0.749 0.74825 0.7475 0.74675 0.746 0.74525 0.7445 0.74375 0.743 0.74225 0.7415 0.74075 0.74 0.73925 0.9385 0.93775 0.937 0.93625 0.9355 0.93475 0.934 0.93325 0.9325 0.93175 1.0075 1.00675 1.006 1.00525 1.0045 1.00375 1.003 1.00225 1.0015 1.00075 0.8 0.79925 0.7985 0.79775 0.797 0.79625 0.7955 0.79475 0.794 0.79325 0.7925 0.79175 0.791 0.79025 0.7895 0.78875 0.788 0.78725 0.7865 0.78575 0.785 0.78425 0.7835 0.78275 0.782 0.78125 0.7805 0.77975 0.779 0.77825 0.7775 0.77675 0.776 0.77525 0.7745 0.77375 0.773 0.77225 0.7715 0.77075 0.77 0.76925 0.7685 0.76775 0.767 0.76625 0.7655 0.76475 0.764 0.76325 0.7625 0.76175 0.761 0.76025 0.7595 0.75875 0.758 0.75725 0.7565 0.75575 0.755 0.75425 0.7535 0.75275 0.752 0.75125 0.7505 0.74975 0.749 0.74825 0.7475 0.74675 0.746 0.74525 0.7445 0.74375 0.743 0.74225 0.7415 0.74075 0.94 0.93925 0.9385 0.93775 0.937 0.93625 0.9355 0.93475 0.934 0.93325 1.009 1.00825 1.0075 1.00675 1.006 1.00525 1.0045 1.00375 1.003 1.00225 0.8015 0.80075 0.8 0.79925 0.7985 0.79775 0.797 0.79625 0.7955 0.79475 0.794 0.79325 0.7925 0.79175 0.791 0.79025 0.7895 0.78875 0.788 0.78725 0.7865 0.78575 0.785 0.78425 0.7835 0.78275 0.782 0.78125 0.7805 0.77975 0.779 0.77825 0.7775 0.77675 0.776 0.77525 0.7745 0.77375 0.773 0.77225 0.7715 0.77075 0.77 0.76925 0.7685 0.76775 0.767 0.76625 0.7655 0.76475 0.764 0.76325 0.7625 0.76175 0.761 0.76025 0.7595 0.75875 0.758 0.75725 0.7565 0.75575 0.755 0.75425 0.7535 0.75275 0.752 0.75125 0.7505 0.74975 0.749 0.74825 0.7475 0.74675 0.746 0.74525 0.7445 0.74375 0.743 0.74225 0.9415 0.94075 0.94 0.93925 0.9385 0.93775 0.937 0.93625 0.9355 0.93475 1.0105 1.00975 1.009 1.00825 1.0075 1.00675 1.006 1.00525 1.0045 1.00375 0.803 0.80225 0.8015 0.80075 0.8 0.79925 0.7985 0.79775 0.797 0.79625 0.7955 0.79475 0.794 0.79325 0.7925 0.79175 0.791 0.79025 0.7895 0.78875 0.788 0.78725 0.7865 0.78575 0.785 0.78425 0.7835 0.78275 0.782 0.78125 0.7805 0.77975 0.779 0.77825 0.7775 0.77675 0.776 0.77525 0.7745 0.77375 0.773 0.77225 0.7715 0.77075 0.77 0.76925 0.7685 0.76775 0.767 0.76625 0.7655 0.76475 0.764 0.76325 0.7625 0.76175 0.761 0.76025 0.7595 0.75875 0.758 0.75725 0.7565 0.75575 0.755 0.75425 0.7535 0.75275 0.752 0.75125 0.7505 0.74975 0.749 0.74825 0.7475 0.74675 0.746 0.74525 0.7445 0.74375 0.943 0.94225 0.9415 0.94075 0.94 0.93925 0.9385 0.93775 0.937 0.93625 1.012 1.01125 1.0105 1.00975 1.009 1.00825 1.0075 1.00675 1.006 1.00525 0.8045 0.80375 0.803 0.80225 0.8015 0.80075 0.8 0.79925 0.7985 0.79775 0.797 0.79625 0.7955 0.79475 0.794 0.79325 0.7925 0.79175 0.791 0.79025 0.7895 0.78875 0.788 0.78725 0.7865 0.78575 0.785 0.78425 0.7835 0.78275 0.782 0.78125 0.7805 0.77975 0.779 0.77825 0.7775 0.77675 0.776 0.77525 0.7745 0.77375 0.773 0.77225 0.7715 0.77075 0.77 0.76925 0.7685 0.76775 0.767 0.76625 0.7655 0.76475 0.764 0.76325 0.7625 0.76175 0.761 0.76025 0.7595 0.75875 0.758 0.75725 0.7565 0.75575 0.755 0.75425 0.7535 0.75275 0.752 0.75125 0.7505 0.74975 0.749 0.74825 0.7475 0.74675 0.746 0.74525 0.9445 0.94375 0.943 0.94225 0.9415 0.94075 0.94 0.93925 0.9385 0.93775 1.0135 1.01275 1.012 1.01125 1.0105 1.00975 1.009 1.00825 1.0075 1.00675 0.806 0.80525 0.8045 0.80375 0.803 0.80225 0.8015 0.80075 0.8 0.79925 0.7985 0.79775 0.797 0.79625 0.7955 0.79475 0.794 0.79325 0.7925 0.79175 0.791 0.79025 0.7895 0.78875 0.788 0.78725 0.7865 0.78575 0.785 0.78425 0.7835 0.78275 0.782 0.78125 0.7805 0.77975 0.779 0.77825 0.7775 0.77675 0.776 0.77525 0.7745 0.77375 0.773 0.77225 0.7715 0.77075 0.77 0.76925 0.7685 0.76775 0.767 0.76625 0.7655 0.76475 0.764 0.76325 0.7625 0.76175 0.761 0.76025 0.7595 0.75875 0.758 0.75725 0.7565 0.75575 0.755 0.75425 0.7535 0.75275 0.752 0.75125 0.7505 0.74975 0.749 0.74825 0.7475 0.74675 0.946 0.94525 0.9445 0.94375 0.943 0.94225 0.9415 0.94075 0.94 0.93925 1.015 1.01425 1.0135 1.01275 1.012 1.01125 1.0105 1.00975 1.009 1.00825 0.8075 0.80675 0.806 0.80525 0.8045 0.80375 0.803 0.80225 0.8015 0.80075 0.8 0.79925 0.7985 0.79775 0.797 0.79625 0.7955 0.79475 0.794 0.79325 0.7925 0.79175 0.791 0.79025 0.7895 0.78875 0.788 0.78725 0.7865 0.78575 0.785 0.78425 0.7835 0.78275 0.782 0.78125 0.7805 0.77975 0.779 0.77825 0.7775 0.77675 0.776 0.77525 0.7745 0.77375 0.773 0.77225 0.7715 0.77075 0.77 0.76925 0.7685 0.76775 0.767 0.76625 0.7655 0.76475 0.764 0.76325 0.7625 0.76175 0.761 0.76025 0.7595 0.75875 0.758 0.75725 0.7565 0.75575 0.755 0.75425 0.7535 0.75275 0.752 0.75125 0.7505 0.74975 0.749 0.74825 0.9475 0.94675 0.946 0.94525 0.9445 0.94375 0.943 0.94225 0.9415 0.94075 1.0165 1.01575 1.015 1.01425 1.0135 1.01275 1.012 1.01125 1.0105 1.00975 0.809 0.80825 0.8075 0.80675 0.806 0.80525 0.8045 0.80375 0.803 0.80225 0.8015 0.80075 0.8 0.79925 0.7985 0.79775 0.797 0.79625 0.7955 0.79475 0.794 0.79325 0.7925 0.79175 0.791 0.79025 0.7895 0.78875 0.788 0.78725 0.7865 0.78575 0.785 0.78425 0.7835 0.78275 0.782 0.78125 0.7805 0.77975 0.779 0.77825 0.7775 0.77675 0.776 0.77525 0.7745 0.77375 0.773 0.77225 0.7715 0.77075 0.77 0.76925 0.7685 0.76775 0.767 0.76625 0.7655 0.76475 0.764 0.76325 0.7625 0.76175 0.761 0.76025 0.7595 0.75875 0.758 0.75725 0.7565 0.75575 0.755 0.75425 0.7535 0.75275 0.752 0.75125 0.7505 0.74975 0.949 0.94825 0.9475 0.94675 0.946 0.94525 0.9445 0.94375 0.943 0.94225 1.018 1.01725 1.0165 1.01575 1.015 1.01425 1.0135 1.01275 1.012 1.01125 0.8105 0.80975 0.809 0.80825 0.8075 0.80675 0.806 0.80525 0.8045 0.80375 0.803 0.80225 0.8015 0.80075 0.8 0.79925 0.7985 0.79775 0.797 0.79625 0.7955 0.79475 0.794 0.79325 0.7925 0.79175 0.791 0.79025 0.7895 0.78875 0.788 0.78725 0.7865 0.78575 0.785 0.78425 0.7835 0.78275 0.782 0.78125 0.7805 0.77975 0.779 0.77825 0.7775 0.77675 0.776 0.77525 0.7745 0.77375 0.773 0.77225 0.7715 0.77075 0.77 0.76925 0.7685 0.76775 0.767 0.76625 0.7655 0.76475 0.764 0.76325 0.7625 0.76175 0.761 0.76025 0.7595 0.75875 0.758 0.75725 0.7565 0.75575 0.755 0.75425 0.7535 0.75275 0.752 0.75125 0.9505 0.94975 0.949 0.94825 0.9475 0.94675 0.946 0.94525 0.9445 0.94375 1.0195 1.01875 1.018 1.01725 1.0165 1.01575 1.015 1.01425 1.0135 1.01275 0.812 0.81125 0.8105 0.80975 0.809 0.80825 0.8075 0.80675 0.806 0.80525 0.8045 0.80375 0.803 0.80225 0.8015 0.80075 0.8 0.79925 0.7985 0.79775 0.797 0.79625 0.7955 0.79475 0.794 0.79325 0.7925 0.79175 0.791 0.79025 0.7895 0.78875 0.788 0.78725 0.7865 0.78575 0.785 0.78425 0.7835 0.78275 0.782 0.78125 0.7805 0.77975 0.779 0.77825 0.7775 0.77675 0.776 0.77525 0.7745 0.77375 0.773 0.77225 0.7715 0.77075 0.77 0.76925 0.7685 0.76775 0.767 0.76625 0.7655 0.76475 0.764 0.76325 0.7625 0.76175 0.761 0.76025 0.7595 0.75875 0.758 0.75725 0.7565 0.75575 0.755 0.75425 0.7535 0.75275 0.952 0.95125 0.9505 0.94975 0.949 0.94825 0.9475 0.94675 0.946 0.94525 1.021 1.02025 1.0195 1.01875 1.018 1.01725 1.0165 1.01575 1.015 1.01425 0.8135 0.81275 0.812 0.81125 0.8105 0.80975 0.809 0.80825 0.8075 0.80675 0.806 0.80525 0.8045 0.80375 0.803 0.80225 0.8015 0.80075 0.8 0.79925 0.7985 0.79775 0.797 0.79625 0.7955 0.79475 0.794 0.79325 0.7925 0.79175 0.791 0.79025 0.7895 0.78875 0.788 0.78725 0.7865 0.78575 0.785 0.78425 0.7835 0.78275 0.782 0.78125 0.7805 0.77975 0.779 0.77825 0.7775 0.77675 0.776 0.77525 0.7745 0.77375 0.773 0.77225 0.7715 0.77075 0.77 0.76925 0.7685 0.76775 0.767 0.76625 0.7655 0.76475 0.764 0.76325 0.7625 0.76175 0.761 0.76025 0.7595 0.75875 0.758 0.75725 0.7565 0.75575 0.755 0.75425 0.9535 0.95275 0.952 0.95125 0.9505 0.94975 0.949 0.94825 0.9475 0.94675 1.0225 1.02175 1.021 1.02025 1.0195 1.01875 1.018 1.01725 1.0165 1.01575 0.815 0.81425 0.8135 0.81275 0.812 0.81125 0.8105 0.80975 0.809 0.80825 0.8075 0.80675 0.806 0.80525 0.8045 0.80375 0.803 0.80225 0.8015 0.80075 0.8 0.79925 0.7985 0.79775 0.797 0.79625 0.7955 0.79475 0.794 0.79325 0.7925 0.79175 0.791 0.79025 0.7895 0.78875 0.788 0.78725 0.7865 0.78575 0.785 0.78425 0.7835 0.78275 0.782 0.78125 0.7805 0.77975 0.779 0.77825 0.7775 0.77675 0.776 0.77525 0.7745 0.77375 0.773 0.77225 0.7715 0.77075 0.77 0.76925 0.7685 0.76775 0.767 0.76625 0.7655 0.76475 0.764 0.76325 0.7625 0.76175 0.761 0.76025 0.7595 0.75875 0.758 0.75725 0.7565 0.75575 0.955 0.95425 0.9535 0.95275 0.952 0.95125 0.9505 0.94975 0.949 0.94825 1.024 1.02325 1.0225 1.02175 1.021 1.02025 1.0195 1.01875 1.018 1.01725 0.8165 0.81575 0.815 0.81425 0.8135 0.81275 0.812 0.81125 0.8105 0.80975 0.809 0.80825 0.8075 0.80675 0.806 0.80525 0.8045 0.80375 0.803 0.80225 0.8015 0.80075 0.8 0.79925 0.7985 0.79775 0.797 0.79625 0.7955 0.79475 0.794 0.79325 0.7925 0.79175 0.791 0.79025 0.7895 0.78875 0.788 0.78725 0.7865 0.78575 0.785 0.78425 0.7835 0.78275 0.782 0.78125 0.7805 0.77975 0.779 0.77825 0.7775 0.77675 0.776 0.77525 0.7745 0.77375 0.773 0.77225 0.7715 0.77075 0.77 0.76925 0.7685 0.76775 0.767 0.76625 0.7655 0.76475 0.764 0.76325 0.7625 0.76175 0.761 0.76025 0.7595 0.75875 0.758 0.75725 0.9565 0.95575 0.955 0.95425 0.9535 0.95275 0.952 0.95125 0.9505 0.94975 1.0255 1.02475 1.024 1.02325 1.0225 1.02175 1.021 1.02025 1.0195 1.01875 0.818 0.81725 0.8165 0.81575 0.815 0.81425 0.8135 0.81275 0.812 0.81125 0.8105 0.80975 0.809 0.80825 0.8075 0.80675 0.806 0.80525 0.8045 0.80375 0.803 0.80225 0.8015 0.80075 0.8 0.79925 0.7985 0.79775 0.797 0.79625 0.7955 0.79475 0.794 0.79325 0.7925 0.79175 0.791 0.79025 0.7895 0.78875 0.788 0.78725 0.7865 0.78575 0.785 0.78425 0.7835 0.78275 0.782 0.78125 0.7805 0.77975 0.779 0.77825 0.7775 0.77675 0.776 0.77525 0.7745 0.77375 0.773 0.77225 0.7715 0.77075 0.77 0.76925 0.7685 0.76775 0.767 0.76625 0.7655 0.76475 0.764 0.76325 0.7625 0.76175 0.761 0.76025 0.7595 0.75875 0.958 0.95725 0.9565 0.95575 0.955 0.95425 0.9535 0.95275 0.952 0.95125 1.027 1.02625 1.0255 1.02475 1.024 1.02325 1.0225 1.02175 1.021 1.02025 0.8195 0.81875 0.818 0.81725 0.8165 0.81575 0.815 0.81425 0.8135 0.81275 0.812 0.81125 0.8105 0.80975 0.809 0.80825 0.8075 0.80675 0.806 0.80525 0.8045 0.80375 0.803 0.80225 0.8015 0.80075 0.8 0.79925 0.7985 0.79775 0.797 0.79625 0.7955 0.79475 0.794 0.79325 0.7925 0.79175 0.791 0.79025 0.7895 0.78875 0.788 0.78725 0.7865 0.78575 0.785 0.78425 0.7835 0.78275 0.782 0.78125 0.7805 0.77975 0.779 0.77825 0.7775 0.77675 0.776 0.77525 0.7745 0.77375 0.773 0.77225 0.7715 0.77075 0.77 0.76925 0.7685 0.76775 0.767 0.76625 0.7655 0.76475 0.764 0.76325 0.7625 0.76175 0.761 0.76025 0.9595 0.95875 0.958 0.95725 0.9565 0.95575 0.955 0.95425 0.9535 0.95275 1.0285 1.02775 1.027 1.02625 1.0255 1.02475 1.024 1.02325 1.0225 1.02175 0.821 0.82025 0.8195 0.81875 0.818 0.81725 0.8165 0.81575 0.815 0.81425 0.8135 0.81275 0.812 0.81125 0.8105 0.80975 0.809 0.80825 0.8075 0.80675 0.806 0.80525 0.8045 0.80375 0.803 0.80225 0.8015 0.80075 0.8 0.79925 0.7985 0.79775 0.797 0.79625 0.7955 0.79475 0.794 0.79325 0.7925 0.79175 0.791 0.79025 0.7895 0.78875 0.788 0.78725 0.7865 0.78575 0.785 0.78425 0.7835 0.78275 0.782 0.78125 0.7805 0.77975 0.779 0.77825 0.7775 0.77675 0.776 0.77525 0.7745 0.77375 0.773 0.77225 0.7715 0.77075 0.77 0.76925 0.7685 0.76775 0.767 0.76625 0.7655 0.76475 0.764 0.76325 0.7625 0.76175 0.961 0.96025 0.9595 0.95875 0.958 0.95725 0.9565 0.95575 0.955 0.95425 1.03 1.02925 1.0285 1.02775 1.027 1.02625 1.0255 1.02475 1.024 1.02325 0.8225 0.82175 0.821 0.82025 0.8195 0.81875 0.818 0.81725 0.8165 0.81575 0.815 0.81425 0.8135 0.81275 0.812 0.81125 0.8105 0.80975 0.809 0.80825 0.8075 0.80675 0.806 0.80525 0.8045 0.80375 0.803 0.80225 0.8015 0.80075 0.8 0.79925 0.7985 0.79775 0.797 0.79625 0.7955 0.79475 0.794 0.79325 0.7925 0.79175 0.791 0.79025 0.7895 0.78875 0.788 0.78725 0.7865 0.78575 0.785 0.78425 0.7835 0.78275 0.782 0.78125 0.7805 0.77975 0.779 0.77825 0.7775 0.77675 0.776 0.77525 0.7745 0.77375 0.773 0.77225 0.7715 0.77075 0.77 0.76925 0.7685 0.76775 0.767 0.76625 0.7655 0.76475 0.764 0.76325 0.9625 0.96175 0.961 0.96025 0.9595 0.95875 0.958 0.95725 0.9565 0.95575 1.0315 1.03075 1.03 1.02925 1.0285 1.02775 1.027 1.02625 1.0255 1.02475 0.824 0.82325 0.8225 0.82175 0.821 0.82025 0.8195 0.81875 0.818 0.81725 0.8165 0.81575 0.815 0.81425 0.8135 0.81275 0.812 0.81125 0.8105 0.80975 0.809 0.80825 0.8075 0.80675 0.806 0.80525 0.8045 0.80375 0.803 0.80225 0.8015 0.80075 0.8 0.79925 0.7985 0.79775 0.797 0.79625 0.7955 0.79475 0.794 0.79325 0.7925 0.79175 0.791 0.79025 0.7895 0.78875 0.788 0.78725 0.7865 0.78575 0.785 0.78425 0.7835 0.78275 0.782 0.78125 0.7805 0.77975 0.779 0.77825 0.7775 0.77675 0.776 0.77525 0.7745 0.77375 0.773 0.77225 0.7715 0.77075 0.77 0.76925 0.7685 0.76775 0.767 0.76625 0.7655 0.76475 0.964 0.96325 0.9625 0.96175 0.961 0.96025 0.9595 0.95875 0.958 0.95725 1.033 1.03225 1.0315 1.03075 1.03 1.02925 1.0285 1.02775 1.027 1.02625 0.8255 0.82475 0.824 0.82325 0.8225 0.82175 0.821 0.82025 0.8195 0.81875 0.818 0.81725 0.8165 0.81575 0.815 0.81425 0.8135 0.81275 0.812 0.81125 0.8105 0.80975 0.809 0.80825 0.8075 0.80675 0.806 0.80525 0.8045 0.80375 0.803 0.80225 0.8015 0.80075 0.8 0.79925 0.7985 0.79775 0.797 0.79625 0.7955 0.79475 0.794 0.79325 0.7925 0.79175 0.791 0.79025 0.7895 0.78875 0.788 0.78725 0.7865 0.78575 0.785 0.78425 0.7835 0.78275 0.782 0.78125 0.7805 0.77975 0.779 0.77825 0.7775 0.77675 0.776 0.77525 0.7745 0.77375 0.773 0.77225 0.7715 0.77075 0.77 0.76925 0.7685 0.76775 0.767 0.76625 0.9655 0.96475 0.964 0.96325 0.9625 0.96175 0.961 0.96025 0.9595 0.95875 1.0345 1.03375 1.033 1.03225 1.0315 1.03075 1.03 1.02925 1.0285 1.02775 0.827 0.82625 0.8255 0.82475 0.824 0.82325 0.8225 0.82175 0.821 0.82025 0.8195 0.81875 0.818 0.81725 0.8165 0.81575 0.815 0.81425 0.8135 0.81275 0.812 0.81125 0.8105 0.80975 0.809 0.80825 0.8075 0.80675 0.806 0.80525 0.8045 0.80375 0.803 0.80225 0.8015 0.80075 0.8 0.79925 0.7985 0.79775 0.797 0.79625 0.7955 0.79475 0.794 0.79325 0.7925 0.79175 0.791 0.79025 0.7895 0.78875 0.788 0.78725 0.7865 0.78575 0.785 0.78425 0.7835 0.78275 0.782 0.78125 0.7805 0.77975 0.779 0.77825 0.7775 0.77675 0.776 0.77525 0.7745 0.77375 0.773 0.77225 0.7715 0.77075 0.77 0.76925 0.7685 0.76775 0.967 0.96625 0.9655 0.96475 0.964 0.96325 0.9625 0.96175 0.961 0.96025 1.036 1.03525 1.0345 1.03375 1.033 1.03225 1.0315 1.03075 1.03 1.02925 0.8285 0.82775 0.827 0.82625 0.8255 0.82475 0.824 0.82325 0.8225 0.82175 0.821 0.82025 0.8195 0.81875 0.818 0.81725 0.8165 0.81575 0.815 0.81425 0.8135 0.81275 0.812 0.81125 0.8105 0.80975 0.809 0.80825 0.8075 0.80675 0.806 0.80525 0.8045 0.80375 0.803 0.80225 0.8015 0.80075 0.8 0.79925 0.7985 0.79775 0.797 0.79625 0.7955 0.79475 0.794 0.79325 0.7925 0.79175 0.791 0.79025 0.7895 0.78875 0.788 0.78725 0.7865 0.78575 0.785 0.78425 0.7835 0.78275 0.782 0.78125 0.7805 0.77975 0.779 0.77825 0.7775 0.77675 0.776 0.77525 0.7745 0.77375 0.773 0.77225 0.7715 0.77075 0.77 0.76925 0.9685 0.96775 0.967 0.96625 0.9655 0.96475 0.964 0.96325 0.9625 0.96175 1.0375 1.03675 1.036 1.03525 1.0345 1.03375 1.033 1.03225 1.0315 1.03075 0.83 0.82925 0.8285 0.82775 0.827 0.82625 0.8255 0.82475 0.824 0.82325 0.8225 0.82175 0.821 0.82025 0.8195 0.81875 0.818 0.81725 0.8165 0.81575 0.815 0.81425 0.8135 0.81275 0.812 0.81125 0.8105 0.80975 0.809 0.80825 0.8075 0.80675 0.806 0.80525 0.8045 0.80375 0.803 0.80225 0.8015 0.80075 0.8 0.79925 0.7985 0.79775 0.797 0.79625 0.7955 0.79475 0.794 0.79325 0.7925 0.79175 0.791 0.79025 0.7895 0.78875 0.788 0.78725 0.7865 0.78575 0.785 0.78425 0.7835 0.78275 0.782 0.78125 0.7805 0.77975 0.779 0.77825 0.7775 0.77675 0.776 0.77525 0.7745 0.77375 0.773 0.77225 0.7715 0.77075 0.97 0.96925 0.9685 0.96775 0.967 0.96625 0.9655 0.96475 0.964 0.96325 1.039 1.03825 1.0375 1.03675 1.036 1.03525 1.0345 1.03375 1.033 1.03225 0.8315 0.83075 0.83 0.82925 0.8285 0.82775 0.827 0.82625 0.8255 0.82475 0.824 0.82325 0.8225 0.82175 0.821 0.82025 0.8195 0.81875 0.818 0.81725 0.8165 0.81575 0.815 0.81425 0.8135 0.81275 0.812 0.81125 0.8105 0.80975 0.809 0.80825 0.8075 0.80675 0.806 0.80525 0.8045 0.80375 0.803 0.80225 0.8015 0.80075 0.8 0.79925 0.7985 0.79775 0.797 0.79625 0.7955 0.79475 0.794 0.79325 0.7925 0.79175 0.791 0.79025 0.7895 0.78875 0.788 0.78725 0.7865 0.78575 0.785 0.78425 0.7835 0.78275 0.782 0.78125 0.7805 0.77975 0.779 0.77825 0.7775 0.77675 0.776 0.77525 0.7745 0.77375 0.773 0.77225 0.9715 0.97075 0.97 0.96925 0.9685 0.96775 0.967 0.96625 0.9655 0.96475 1.0405 1.03975 1.039 1.03825 1.0375 1.03675 1.036 1.03525 1.0345 1.03375 0.833 0.83225 0.8315 0.83075 0.83 0.82925 0.8285 0.82775 0.827 0.82625 0.8255 0.82475 0.824 0.82325 0.8225 0.82175 0.821 0.82025 0.8195 0.81875 0.818 0.81725 0.8165 0.81575 0.815 0.81425 0.8135 0.81275 0.812 0.81125 0.8105 0.80975 0.809 0.80825 0.8075 0.80675 0.806 0.80525 0.8045 0.80375 0.803 0.80225 0.8015 0.80075 0.8 0.79925 0.7985 0.79775 0.797 0.79625 0.7955 0.79475 0.794 0.79325 0.7925 0.79175 0.791 0.79025 0.7895 0.78875 0.788 0.78725 0.7865 0.78575 0.785 0.78425 0.7835 0.78275 0.782 0.78125 0.7805 0.77975 0.779 0.77825 0.7775 0.77675 0.776 0.77525 0.7745 0.77375 0.973 0.97225 0.9715 0.97075 0.97 0.96925 0.9685 0.96775 0.967 0.96625 1.042 1.04125 1.0405 1.03975 1.039 1.03825 1.0375 1.03675 1.036 1.03525 0.8345 0.83375 0.833 0.83225 0.8315 0.83075 0.83 0.82925 0.8285 0.82775 0.827 0.82625 0.8255 0.82475 0.824 0.82325 0.8225 0.82175 0.821 0.82025 0.8195 0.81875 0.818 0.81725 0.8165 0.81575 0.815 0.81425 0.8135 0.81275 0.812 0.81125 0.8105 0.80975 0.809 0.80825 0.8075 0.80675 0.806 0.80525 0.8045 0.80375 0.803 0.80225 0.8015 0.80075 0.8 0.79925 0.7985 0.79775 0.797 0.79625 0.7955 0.79475 0.794 0.79325 0.7925 0.79175 0.791 0.79025 0.7895 0.78875 0.788 0.78725 0.7865 0.78575 0.785 0.78425 0.7835 0.78275 0.782 0.78125 0.7805 0.77975 0.779 0.77825 0.7775 0.77675 0.776 0.77525 0.9745 0.97375 0.973 0.97225 0.9715 0.97075 0.97 0.96925 0.9685 0.96775 1.0435 1.04275 1.042 1.04125 1.0405 1.03975 1.039 1.03825 1.0375 1.03675 0.836 0.83525 0.8345 0.83375 0.833 0.83225 0.8315 0.83075 0.83 0.82925 0.8285 0.82775 0.827 0.82625 0.8255 0.82475 0.824 0.82325 0.8225 0.82175 0.821 0.82025 0.8195 0.81875 0.818 0.81725 0.8165 0.81575 0.815 0.81425 0.8135 0.81275 0.812 0.81125 0.8105 0.80975 0.809 0.80825 0.8075 0.80675 0.806 0.80525 0.8045 0.80375 0.803 0.80225 0.8015 0.80075 0.8 0.79925 0.7985 0.79775 0.797 0.79625 0.7955 0.79475 0.794 0.79325 0.7925 0.79175 0.791 0.79025 0.7895 0.78875 0.788 0.78725 0.7865 0.78575 0.785 0.78425 0.7835 0.78275 0.782 0.78125 0.7805 0.77975 0.779 0.77825 0.7775 0.77675 0.976 0.97525 0.9745 0.97375 0.973 0.97225 0.9715 0.97075 0.97 0.96925 1.045 1.04425 1.0435 1.04275 1.042 1.04125 1.0405 1.03975 1.039 1.03825 0.8375 0.83675 0.836 0.83525 0.8345 0.83375 0.833 0.83225 0.8315 0.83075 0.83 0.82925 0.8285 0.82775 0.827 0.82625 0.8255 0.82475 0.824 0.82325 0.8225 0.82175 0.821 0.82025 0.8195 0.81875 0.818 0.81725 0.8165 0.81575 0.815 0.81425 0.8135 0.81275 0.812 0.81125 0.8105 0.80975 0.809 0.80825 0.8075 0.80675 0.806 0.80525 0.8045 0.80375 0.803 0.80225 0.8015 0.80075 0.8 0.79925 0.7985 0.79775 0.797 0.79625 0.7955 0.79475 0.794 0.79325 0.7925 0.79175 0.791 0.79025 0.7895 0.78875 0.788 0.78725 0.7865 0.78575 0.785 0.78425 0.7835 0.78275 0.782 0.78125 0.7805 0.77975 0.779 0.77825 0.9775 0.97675 0.976 0.97525 0.9745 0.97375 0.973 0.97225 0.9715 0.97075 1.0465 1.04575 1.045 1.04425 1.0435 1.04275 1.042 1.04125 1.0405 1.03975 0.839 0.83825 0.8375 0.83675 0.836 0.83525 0.8345 0.83375 0.833 0.83225 0.8315 0.83075 0.83 0.82925 0.8285 0.82775 0.827 0.82625 0.8255 0.82475 0.824 0.82325 0.8225 0.82175 0.821 0.82025 0.8195 0.81875 0.818 0.81725 0.8165 0.81575 0.815 0.81425 0.8135 0.81275 0.812 0.81125 0.8105 0.80975 0.809 0.80825 0.8075 0.80675 0.806 0.80525 0.8045 0.80375 0.803 0.80225 0.8015 0.80075 0.8 0.79925 0.7985 0.79775 0.797 0.79625 0.7955 0.79475 0.794 0.79325 0.7925 0.79175 0.791 0.79025 0.7895 0.78875 0.788 0.78725 0.7865 0.78575 0.785 0.78425 0.7835 0.78275 0.782 0.78125 0.7805 0.77975 0.979 0.97825 0.9775 0.97675 0.976 0.97525 0.9745 0.97375 0.973 0.97225 1.048 1.04725 1.0465 1.04575 1.045 1.04425 1.0435 1.04275 1.042 1.04125 0.8405 0.83975 0.839 0.83825 0.8375 0.83675 0.836 0.83525 0.8345 0.83375 0.833 0.83225 0.8315 0.83075 0.83 0.82925 0.8285 0.82775 0.827 0.82625 0.8255 0.82475 0.824 0.82325 0.8225 0.82175 0.821 0.82025 0.8195 0.81875 0.818 0.81725 0.8165 0.81575 0.815 0.81425 0.8135 0.81275 0.812 0.81125 0.8105 0.80975 0.809 0.80825 0.8075 0.80675 0.806 0.80525 0.8045 0.80375 0.803 0.80225 0.8015 0.80075 0.8 0.79925 0.7985 0.79775 0.797 0.79625 0.7955 0.79475 0.794 0.79325 0.7925 0.79175 0.791 0.79025 0.7895 0.78875 0.788 0.78725 0.7865 0.78575 0.785 0.78425 0.7835 0.78275 0.782 0.78125 0.9805 0.97975 0.979 0.97825 0.9775 0.97675 0.976 0.97525 0.9745 0.97375 1.0495 1.04875 1.048 1.04725 1.0465 1.04575 1.045 1.04425 1.0435 1.04275 0.842 0.84125 0.8405 0.83975 0.839 0.83825 0.8375 0.83675 0.836 0.83525 0.8345 0.83375 0.833 0.83225 0.8315 0.83075 0.83 0.82925 0.8285 0.82775 0.827 0.82625 0.8255 0.82475 0.824 0.82325 0.8225 0.82175 0.821 0.82025 0.8195 0.81875 0.818 0.81725 0.8165 0.81575 0.815 0.81425 0.8135 0.81275 0.812 0.81125 0.8105 0.80975 0.809 0.80825 0.8075 0.80675 0.806 0.80525 0.8045 0.80375 0.803 0.80225 0.8015 0.80075 0.8 0.79925 0.7985 0.79775 0.797 0.79625 0.7955 0.79475 0.794 0.79325 0.7925 0.79175 0.791 0.79025 0.7895 0.78875 0.788 0.78725 0.7865 0.78575 0.785 0.78425 0.7835 0.78275 0.982 0.98125 0.9805 0.97975 0.979 0.97825 0.9775 0.97675 0.976 0.97525 1.051 1.05025 1.0495 1.04875 1.048 1.04725 1.0465 1.04575 1.045 1.04425 0.8435 0.84275 0.842 0.84125 0.8405 0.83975 0.839 0.83825 0.8375 0.83675 0.836 0.83525 0.8345 0.83375 0.833 0.83225 0.8315 0.83075 0.83 0.82925 0.8285 0.82775 0.827 0.82625 0.8255 0.82475 0.824 0.82325 0.8225 0.82175 0.821 0.82025 0.8195 0.81875 0.818 0.81725 0.8165 0.81575 0.815 0.81425 0.8135 0.81275 0.812 0.81125 0.8105 0.80975 0.809 0.80825 0.8075 0.80675 0.806 0.80525 0.8045 0.80375 0.803 0.80225 0.8015 0.80075 0.8 0.79925 0.7985 0.79775 0.797 0.79625 0.7955 0.79475 0.794 0.79325 0.7925 0.79175 0.791 0.79025 0.7895 0.78875 0.788 0.78725 0.7865 0.78575 0.785 0.78425 0.9835 0.98275 0.982 0.98125 0.9805 0.97975 0.979 0.97825 0.9775 0.97675 1.0525 1.05175 1.051 1.05025 1.0495 1.04875 1.048 1.04725 1.0465 1.04575 0.845 0.84425 0.8435 0.84275 0.842 0.84125 0.8405 0.83975 0.839 0.83825 0.8375 0.83675 0.836 0.83525 0.8345 0.83375 0.833 0.83225 0.8315 0.83075 0.83 0.82925 0.8285 0.82775 0.827 0.82625 0.8255 0.82475 0.824 0.82325 0.8225 0.82175 0.821 0.82025 0.8195 0.81875 0.818 0.81725 0.8165 0.81575 0.815 0.81425 0.8135 0.81275 0.812 0.81125 0.8105 0.80975 0.809 0.80825 0.8075 0.80675 0.806 0.80525 0.8045 0.80375 0.803 0.80225 0.8015 0.80075 0.8 0.79925 0.7985 0.79775 0.797 0.79625 0.7955 0.79475 0.794 0.79325 0.7925 0.79175 0.791 0.79025 0.7895 0.78875 0.788 0.78725 0.7865 0.78575 0.985 0.98425 0.9835 0.98275 0.982 0.98125 0.9805 0.97975 0.979 0.97825 1.054 1.05325 1.0525 1.05175 1.051 1.05025 1.0495 1.04875 1.048 1.04725 0.8465 0.84575 0.845 0.84425 0.8435 0.84275 0.842 0.84125 0.8405 0.83975 0.839 0.83825 0.8375 0.83675 0.836 0.83525 0.8345 0.83375 0.833 0.83225 0.8315 0.83075 0.83 0.82925 0.8285 0.82775 0.827 0.82625 0.8255 0.82475 0.824 0.82325 0.8225 0.82175 0.821 0.82025 0.8195 0.81875 0.818 0.81725 0.8165 0.81575 0.815 0.81425 0.8135 0.81275 0.812 0.81125 0.8105 0.80975 0.809 0.80825 0.8075 0.80675 0.806 0.80525 0.8045 0.80375 0.803 0.80225 0.8015 0.80075 0.8 0.79925 0.7985 0.79775 0.797 0.79625 0.7955 0.79475 0.794 0.79325 0.7925 0.79175 0.791 0.79025 0.7895 0.78875 0.788 0.78725 0.9865 0.98575 0.985 0.98425 0.9835 0.98275 0.982 0.98125 0.9805 0.97975 1.0555 1.05475 1.054 1.05325 1.0525 1.05175 1.051 1.05025 1.0495 1.04875 0.848 0.84725 0.8465 0.84575 0.845 0.84425 0.8435 0.84275 0.842 0.84125 0.8405 0.83975 0.839 0.83825 0.8375 0.83675 0.836 0.83525 0.8345 0.83375 0.833 0.83225 0.8315 0.83075 0.83 0.82925 0.8285 0.82775 0.827 0.82625 0.8255 0.82475 0.824 0.82325 0.8225 0.82175 0.821 0.82025 0.8195 0.81875 0.818 0.81725 0.8165 0.81575 0.815 0.81425 0.8135 0.81275 0.812 0.81125 0.8105 0.80975 0.809 0.80825 0.8075 0.80675 0.806 0.80525 0.8045 0.80375 0.803 0.80225 0.8015 0.80075 0.8 0.79925 0.7985 0.79775 0.797 0.79625 0.7955 0.79475 0.794 0.79325 0.7925 0.79175 0.791 0.79025 0.7895 0.78875 0.988 0.98725 0.9865 0.98575 0.985 0.98425 0.9835 0.98275 0.982 0.98125 1.057 1.05625 1.0555 1.05475 1.054