# vtk DataFile Version 2.0
Generated by FullSWOF_2D version 1.07.01, 2017-05-09
ASCII
DATASET RECTILINEAR_GRID
DIMENSIONS 141 21 1
X_COORDINATES 141 float
0 0.25 0.5 0.75 1 1.25 1.5 1.75 2 2.25 2.5 2.75 3 3.25 3.5 3.75 4 4.25 4.5 4.75 5 5.25 5.5 5.75 6 6.25 6.5 6.75 7 7.25 7.5 7.75 8 8.25 8.5 8.75 9 9.25 9.5 9.75 10 10.25 10.5 10.75 11 11.25 11.5 11.75 12 12.25 12.5 12.75 13 13.25 13.5 13.75 14 14.25 14.5 14.75 15 15.25 15.5 15.75 16 16.25 16.5 16.75 17 17.25 17.5 17.75 18 18.25 18.5 18.75 19 19.25 19.5 19.75 20 20.25 20.5 20.75 21 21.25 21.5 21.75 22 22.25 22.5 22.75 23 23.25 23.5 23.75 24 24.25 24.5 24.75 25 25.25 25.5 25.75 26 26.25 26.5 26.75 27 27.25 27.5 27.75 28 28.25 28.5 28.75 29 29.25 29.5 29.75 30 30.25 30.5 30.75 31 31.25 31.5 31.75 32 32.25 32.5 32.75 33 33.25 33.5 33.75 34 34.25 34.5 34.75 35 
Y_COORDINATES 21 float
0 0.25 0.5 0.75 1 1.25 1.5 1.75 2 2.25 2.5 2.75 3 3.25 3.5 3.75 4 4.25 4.5 4.75 5 
Z_COORDINATES 1 float
0

CELL_DATA 2800
SCALARS z double 1
LOOKUP_TABLE default
49.9999 49.9996 49.9994 49.9991 49.9989 49.9986 49.9984 49.9981 49.9979 49.9976 49.9974 49.9971 49.9969 49.9966 49.9964 49.9961 49.9959 49.9956 49.9954 49.9951 49.9949 49.9946 49.9944 49.9941 49.9939 49.9936 49.9934 49.9931 49.9929 49.9926 49.9924 49.9921 49.9919 49.9916 49.9914 49.9911 49.9909 49.9906 49.9904 49.9901 49.9899 49.9896 49.9894 49.9891 49.9889 49.9886 49.9884 49.9881 49.9879 49.9876 49.9874 49.9871 49.9869 49.9866 49.9864 49.9861 49.9859 49.9856 49.9854 49.9851 49.9849 49.9846 49.9844 49.9841 49.9839 49.9836 49.9834 49.9831 49.9829 49.9826 49.9824 49.9821 49.9819 49.9816 49.9814 49.9811 49.9809 49.9806 49.9804 49.9801 49.9799 49.9796 49.9794 49.9791 49.9789 49.9786 49.9784 49.9781 49.9779 49.9776 49.9774 49.9771 49.9769 49.9766 49.9764 49.9761 49.9759 49.9756 49.9754 49.9751 49.9749 49.9746 49.9744 49.9741 49.9739 49.9736 49.9734 49.9731 49.9729 49.9726 49.9724 49.9721 49.9719 49.9716 49.9714 49.9711 49.9709 49.9706 49.9704 49.9701 49.9699 49.9696 49.9694 49.9691 49.9689 49.9686 49.9684 49.9681 49.9679 49.9676 49.9674 49.9671 49.9669 49.9666 49.9664 49.9661 49.9659 49.9656 49.9654 49.9651 49.9999 49.9996 49.9994 49.9991 49.9989 49.9986 49.9984 49.9981 49.9979 49.9976 49.9974 49.9971 49.9969 49.9966 49.9964 49.9961 49.9959 49.9956 49.9954 49.9951 49.9949 49.9946 49.9944 49.9941 49.9939 49.9936 49.9934 49.9931 49.9929 49.9926 49.9924 49.9921 49.9919 49.9916 49.9914 49.9911 49.9909 49.9906 49.9904 49.9901 49.9899 49.9896 49.9894 49.9891 49.9889 49.9886 49.9884 49.9881 49.9879 49.9876 49.9874 49.9871 49.9869 49.9866 49.9864 49.9861 49.9859 49.9856 49.9854 49.9851 49.9849 49.9846 49.9844 49.9841 49.9839 49.9836 49.9834 49.9831 49.9829 49.9826 49.9824 49.9821 49.9819 49.9816 49.9814 49.9811 49.9809 49.9806 49.9804 49.9801 49.9799 49.9796 49.9794 49.9791 49.9789 49.9786 49.9784 49.9781 49.9779 49.9776 49.9774 49.9771 49.9769 49.9766 49.9764 49.9761 49.9759 49.9756 49.9754 49.9751 49.9749 49.9746 49.9744 49.9741 49.9739 49.9736 49.9734 49.9731 49.9729 49.9726 49.9724 49.9721 49.9719 49.9716 49.9714 49.9711 49.9709 49.9706 49.9704 49.9701 49.9699 49.9696 49.9694 49.9691 49.9689 49.9686 49.9684 49.9681 49.9679 49.9676 49.9674 49.9671 49.9669 49.9666 49.9664 49.9661 49.9659 49.9656 49.9654 49.9651 49.9999 49.9996 49.9994 49.9991 49.9989 49.9986 49.9984 49.9981 49.9979 49.9976 49.9974 49.9971 49.9969 49.9966 49.9964 49.9961 49.9959 49.9956 49.9954 49.9951 49.9949 49.9946 49.9944 49.9941 49.9939 49.9936 49.9934 49.9931 49.9929 49.9926 49.9924 49.9921 49.9919 49.9916 49.9914 49.9911 49.9909 49.9906 49.9904 49.9901 49.9899 49.9896 49.9894 49.9891 49.9889 49.9886 49.9884 49.9881 49.9879 49.9876 49.9874 49.9871 49.9869 49.9866 49.9864 49.9861 49.9859 49.9856 49.9854 49.9851 49.9849 49.9846 49.9844 49.9841 49.9839 49.9836 49.9834 49.9831 49.9829 49.9826 49.9824 49.9821 49.9819 49.9816 49.9814 49.9811 49.9809 49.9806 49.9804 49.9801 49.9799 49.9796 49.9794 49.9791 49.9789 49.9786 49.9784 49.9781 49.9779 49.9776 49.9774 49.9771 49.9769 49.9766 49.9764 49.9761 49.9759 49.9756 49.9754 49.9751 49.9749 49.9746 49.9744 49.9741 49.9739 49.9736 49.9734 49.9731 49.9729 49.9726 49.9724 49.9721 49.9719 49.9716 49.9714 49.9711 49.9709 49.9706 49.9704 49.9701 49.9699 49.9696 49.9694 49.9691 49.9689 49.9686 49.9684 49.9681 49.9679 49.9676 49.9674 49.9671 49.9669 49.9666 49.9664 49.9661 49.9659 49.9656 49.9654 49.9651 49.9999 49.9996 49.9994 49.9991 49.9989 49.9986 49.9984 49.9981 49.9979 49.9976 49.9974 49.9971 49.9969 49.9966 49.9964 49.9961 49.9959 49.9956 49.9954 49.9951 49.9949 49.9946 49.9944 49.9941 49.9939 49.9936 49.9934 49.9931 49.9929 49.9926 49.9924 49.9921 49.9919 49.9916 49.9914 49.9911 49.9909 49.9906 49.9904 49.9901 49.9899 49.9896 49.9894 49.9891 49.9889 49.9886 49.9884 49.9881 49.9879 49.9876 49.9874 49.9871 49.9869 49.9866 49.9864 49.9861 49.9859 49.9856 49.9854 49.9851 49.9849 49.9846 49.9844 49.9841 49.9839 49.9836 49.9834 49.9831 49.9829 49.9826 49.9824 49.9821 49.9819 49.9816 49.9814 49.9811 49.9809 49.9806 49.9804 49.9801 49.9799 49.9796 49.9794 49.9791 49.9789 49.9786 49.9784 49.9781 49.9779 49.9776 49.9774 49.9771 49.9769 49.9766 49.9764 49.9761 49.9759 49.9756 49.9754 49.9751 49.9749 49.9746 49.9744 49.9741 49.9739 49.9736 49.9734 49.9731 49.9729 49.9726 49.9724 49.9721 49.9719 49.9716 49.9714 49.9711 49.9709 49.9706 49.9704 49.9701 49.9699 49.9696 49.9694 49.9691 49.9689 49.9686 49.9684 49.9681 49.9679 49.9676 49.9674 49.9671 49.9669 49.9666 49.9664 49.9661 49.9659 49.9656 49.9654 49.9651 49.9999 49.9996 49.9994 49.9991 49.9989 49.9986 49.9984 49.9981 49.9979 49.9976 49.9974 49.9971 49.9969 49.9966 49.9964 49.9961 49.9959 49.9956 49.9954 49.9951 49.9949 49.9946 49.9944 49.9941 49.9939 49.9936 49.9934 49.9931 49.9929 49.9926 49.9924 49.9921 49.9919 49.9916 49.9914 49.9911 49.9909 49.9906 49.9904 49.9901 49.9899 49.9896 49.9894 49.9891 49.9889 49.9886 49.9884 49.9881 49.9879 49.9876 49.9874 49.9871 49.9869 49.9866 49.9864 49.9861 49.9859 49.9856 49.9854 49.9851 49.9849 49.9846 49.9844 49.9841 49.9839 49.9836 49.9834 49.9831 49.9829 49.9826 49.9824 49.9821 49.9819 49.9816 49.9814 49.9811 49.9809 49.9806 49.9804 49.9801 49.9799 49.9796 49.9794 49.9791 49.9789 49.9786 49.9784 49.9781 49.9779 49.9776 49.9774 49.9771 49.9769 49.9766 49.9764 49.9761 49.9759 49.9756 49.9754 49.9751 49.9749 49.9746 49.9744 49.9741 49.9739 49.9736 49.9734 49.9731 49.9729 49.9726 49.9724 49.9721 49.9719 49.9716 49.9714 49.9711 49.9709 49.9706 49.9704 49.9701 49.9699 49.9696 49.9694 49.9691 49.9689 49.9686 49.9684 49.9681 49.9679 49.9676 49.9674 49.9671 49.9669 49.9666 49.9664 49.9661 49.9659 49.9656 49.9654 49.9651 49.9999 49.9996 49.9994 49.9991 49.9989 49.9986 49.9984 49.9981 49.9979 49.9976 49.9974 49.9971 49.9969 49.9966 49.9964 49.9961 49.9959 49.9956 49.9954 49.9951 49.9949 49.9946 49.9944 49.9941 49.9939 49.9936 49.9934 49.9931 49.9929 49.9926 49.9924 49.9921 49.9919 49.9916 49.9914 49.9911 49.9909 49.9906 49.9904 49.9901 49.9899 49.9896 49.9894 49.9891 49.9889 49.9886 49.9884 49.9881 49.9879 49.9876 49.9874 49.9871 49.9869 49.9866 49.9864 49.9861 49.9859 49.9856 49.9854 49.9851 49.9849 49.9846 49.9844 49.9841 49.9839 49.9836 49.9834 49.9831 49.9829 49.9826 49.9824 49.9821 49.9819 49.9816 49.9814 49.9811 49.9809 49.9806 49.9804 49.9801 49.9799 49.9796 49.9794 49.9791 49.9789 49.9786 49.9784 49.9781 49.9779 49.9776 49.9774 49.9771 49.9769 49.9766 49.9764 49.9761 49.9759 49.9756 49.9754 49.9751 49.9749 49.9746 49.9744 49.9741 49.9739 49.9736 49.9734 49.9731 49.9729 49.9726 49.9724 49.9721 49.9719 49.9716 49.9714 49.9711 49.9709 49.9706 49.9704 49.9701 49.9699 49.9696 49.9694 49.9691 49.9689 49.9686 49.9684 49.9681 49.9679 49.9676 49.9674 49.9671 49.9669 49.9666 49.9664 49.9661 49.9659 49.9656 49.9654 49.9651 49.9999 49.9996 49.9994 49.9991 49.9989 49.9986 49.9984 49.9981 49.9979 49.9976 49.9974 49.9971 49.9969 49.9966 49.9964 49.9961 49.9959 49.9956 49.9954 49.9951 49.9949 49.9946 49.9944 49.9941 49.9939 49.9936 49.9934 49.9931 49.9929 49.9926 49.9924 49.9921 49.9919 49.9916 49.9914 49.9911 49.9909 49.9906 49.9904 49.9901 49.9899 49.9896 49.9894 49.9891 49.9889 49.9886 49.9884 49.9881 49.9879 49.9876 49.9874 49.9871 49.9869 49.9866 49.9864 49.9861 49.9859 49.9856 49.9854 49.9851 49.9849 49.9846 49.9844 49.9841 49.9839 49.9836 49.9834 49.9831 49.9829 49.9826 49.9824 49.9821 49.9819 49.9816 49.9814 49.9811 49.9809 49.9806 49.9804 49.9801 49.9799 49.9796 49.9794 49.9791 49.9789 49.9786 49.9784 49.9781 49.9779 49.9776 49.9774 49.9771 49.9769 49.9766 49.9764 49.9761 49.9759 49.9756 49.9754 49.9751 49.9749 49.9746 49.9744 49.9741 49.9739 49.9736 49.9734 49.9731 49.9729 49.9726 49.9724 49.9721 49.9719 49.9716 49.9714 49.9711 49.9709 49.9706 49.9704 49.9701 49.9699 49.9696 49.9694 49.9691 49.9689 49.9686 49.9684 49.9681 49.9679 49.9676 49.9674 49.9671 49.9669 49.9666 49.9664 49.9661 49.9659 49.9656 49.9654 49.9651 49.9999 49.9996 49.9994 49.9991 49.9989 49.9986 49.9984 49.9981 49.9979 49.9976 49.9974 49.9971 49.9969 49.9966 49.9964 49.9961 49.9959 49.9956 49.9954 49.9951 49.9949 49.9946 49.9944 49.9941 49.9939 49.9936 49.9934 49.9931 49.9929 49.9926 49.9924 49.9921 49.9919 49.9916 49.9914 49.9911 49.9909 49.9906 49.9904 49.9901 49.9899 49.9896 49.9894 49.9891 49.9889 49.9886 49.9884 49.9881 49.9879 49.9876 49.9874 49.9871 49.9869 49.9866 49.9864 49.9861 49.9859 49.9856 49.9854 49.9851 49.9849 49.9846 49.9844 49.9841 49.9839 49.9836 49.9834 49.9831 49.9829 49.9826 49.9824 49.9821 49.9819 49.9816 49.9814 49.9811 49.9809 49.9806 49.9804 49.9801 49.9799 49.9796 49.9794 49.9791 49.9789 49.9786 49.9784 49.9781 49.9779 49.9776 49.9774 49.9771 49.9769 49.9766 49.9764 49.9761 49.9759 49.9756 49.9754 49.9751 49.9749 49.9746 49.9744 49.9741 49.9739 49.9736 49.9734 49.9731 49.9729 49.9726 49.9724 49.9721 49.9719 49.9716 49.9714 49.9711 49.9709 49.9706 49.9704 49.9701 49.9699 49.9696 49.9694 49.9691 49.9689 49.9686 49.9684 49.9681 49.9679 49.9676 49.9674 49.9671 49.9669 49.9666 49.9664 49.9661 49.9659 49.9656 49.9654 49.9651 49.9999 49.9996 49.9994 49.9991 49.9989 49.9986 49.9984 49.9981 49.9979 49.9976 49.9974 49.9971 49.9969 49.9966 49.9964 49.9961 49.9959 49.9956 49.9954 49.9951 49.9949 49.9946 49.9944 49.9941 49.9939 49.9936 49.9934 49.9931 49.9929 49.9926 49.9924 49.9921 49.9919 49.9916 49.9914 49.9911 49.9909 49.9906 49.9904 49.9901 49.9899 49.9896 49.9894 49.9891 49.9889 49.9886 49.9884 49.9881 49.9879 49.9876 49.9874 49.9871 49.9869 49.9866 49.9864 49.9861 49.9859 49.9856 49.9854 49.9851 49.9849 49.9846 49.9844 49.9841 49.9839 49.9836 49.9834 49.9831 49.9829 49.9826 49.9824 49.9821 49.9819 49.9816 49.9814 49.9811 49.9809 49.9806 49.9804 49.9801 49.9799 49.9796 49.9794 49.9791 49.9789 49.9786 49.9784 49.9781 49.9779 49.9776 49.9774 49.9771 49.9769 49.9766 49.9764 49.9761 49.9759 49.9756 49.9754 49.9751 49.9749 49.9746 49.9744 49.9741 49.9739 49.9736 49.9734 49.9731 49.9729 49.9726 49.9724 49.9721 49.9719 49.9716 49.9714 49.9711 49.9709 49.9706 49.9704 49.9701 49.9699 49.9696 49.9694 49.9691 49.9689 49.9686 49.9684 49.9681 49.9679 49.9676 49.9674 49.9671 49.9669 49.9666 49.9664 49.9661 49.9659 49.9656 49.9654 49.9651 49.9999 49.9996 49.9994 49.9991 49.9989 49.9986 49.9984 49.9981 49.9979 49.9976 49.9974 49.9971 49.9969 49.9966 49.9964 49.9961 49.9959 49.9956 49.9954 49.9951 49.9949 49.9946 49.9944 49.9941 49.9939 49.9936 49.9934 49.9931 49.9929 49.9926 49.9924 49.9921 49.9919 49.9916 49.9914 49.9911 49.9909 49.9906 49.9904 49.9901 49.9899 49.9896 49.9894 49.9891 49.9889 49.9886 49.9884 49.9881 49.9879 49.9876 49.9874 49.9871 49.9869 49.9866 49.9864 49.9861 49.9859 49.9856 49.9854 49.9851 49.9849 49.9846 49.9844 49.9841 49.9839 49.9836 49.9834 49.9831 49.9829 49.9826 49.9824 49.9821 49.9819 49.9816 49.9814 49.9811 49.9809 49.9806 49.9804 49.9801 49.9799 49.9796 49.9794 49.9791 49.9789 49.9786 49.9784 49.9781 49.9779 49.9776 49.9774 49.9771 49.9769 49.9766 49.9764 49.9761 49.9759 49.9756 49.9754 49.9751 49.9749 49.9746 49.9744 49.9741 49.9739 49.9736 49.9734 49.9731 49.9729 49.9726 49.9724 49.9721 49.9719 49.9716 49.9714 49.9711 49.9709 49.9706 49.9704 49.9701 49.9699 49.9696 49.9694 49.9691 49.9689 49.9686 49.9684 49.9681 49.9679 49.9676 49.9674 49.9671 49.9669 49.9666 49.9664 49.9661 49.9659 49.9656 49.9654 49.9651 49.9999 49.9996 49.9994 49.9991 49.9989 49.9986 49.9984 49.9981 49.9979 49.9976 49.9974 49.9971 49.9969 49.9966 49.9964 49.9961 49.9959 49.9956 49.9954 49.9951 49.9949 49.9946 49.9944 49.9941 49.9939 49.9936 49.9934 49.9931 49.9929 49.9926 49.9924 49.9921 49.9919 49.9916 49.9914 49.9911 49.9909 49.9906 49.9904 49.9901 49.9899 49.9896 49.9894 49.9891 49.9889 49.9886 49.9884 49.9881 49.9879 49.9876 49.9874 49.9871 49.9869 49.9866 49.9864 49.9861 49.9859 49.9856 49.9854 49.9851 49.9849 49.9846 49.9844 49.9841 49.9839 49.9836 49.9834 49.9831 49.9829 49.9826 49.9824 49.9821 49.9819 49.9816 49.9814 49.9811 49.9809 49.9806 49.9804 49.9801 49.9799 49.9796 49.9794 49.9791 49.9789 49.9786 49.9784 49.9781 49.9779 49.9776 49.9774 49.9771 49.9769 49.9766 49.9764 49.9761 49.9759 49.9756 49.9754 49.9751 49.9749 49.9746 49.9744 49.9741 49.9739 49.9736 49.9734 49.9731 49.9729 49.9726 49.9724 49.9721 49.9719 49.9716 49.9714 49.9711 49.9709 49.9706 49.9704 49.9701 49.9699 49.9696 49.9694 49.9691 49.9689 49.9686 49.9684 49.9681 49.9679 49.9676 49.9674 49.9671 49.9669 49.9666 49.9664 49.9661 49.9659 49.9656 49.9654 49.9651 49.9999 49.9996 49.9994 49.9991 49.9989 49.9986 49.9984 49.9981 49.9979 49.9976 49.9974 49.9971 49.9969 49.9966 49.9964 49.9961 49.9959 49.9956 49.9954 49.9951 49.9949 49.9946 49.9944 49.9941 49.9939 49.9936 49.9934 49.9931 49.9929 49.9926 49.9924 49.9921 49.9919 49.9916 49.9914 49.9911 49.9909 49.9906 49.9904 49.9901 49.9899 49.9896 49.9894 49.9891 49.9889 49.9886 49.9884 49.9881 49.9879 49.9876 49.9874 49.9871 49.9869 49.9866 49.9864 49.9861 49.9859 49.9856 49.9854 49.9851 49.9849 49.9846 49.9844 49.9841 49.9839 49.9836 49.9834 49.9831 49.9829 49.9826 49.9824 49.9821 49.9819 49.9816 49.9814 49.9811 49.9809 49.9806 49.9804 49.9801 49.9799 49.9796 49.9794 49.9791 49.9789 49.9786 49.9784 49.9781 49.9779 49.9776 49.9774 49.9771 49.9769 49.9766 49.9764 49.9761 49.9759 49.9756 49.9754 49.9751 49.9749 49.9746 49.9744 49.9741 49.9739 49.9736 49.9734 49.9731 49.9729 49.9726 49.9724 49.9721 49.9719 49.9716 49.9714 49.9711 49.9709 49.9706 49.9704 49.9701 49.9699 49.9696 49.9694 49.9691 49.9689 49.9686 49.9684 49.9681 49.9679 49.9676 49.9674 49.9671 49.9669 49.9666 49.9664 49.9661 49.9659 49.9656 49.9654 49.9651 49.9999 49.9996 49.9994 49.9991 49.9989 49.9986 49.9984 49.9981 49.9979 49.9976 49.9974 49.9971 49.9969 49.9966 49.9964 49.9961 49.9959 49.9956 49.9954 49.9951 49.9949 49.9946 49.9944 49.9941 49.9939 49.9936 49.9934 49.9931 49.9929 49.9926 49.9924 49.9921 49.9919 49.9916 49.9914 49.9911 49.9909 49.9906 49.9904 49.9901 49.9899 49.9896 49.9894 49.9891 49.9889 49.9886 49.9884 49.9881 49.9879 49.9876 49.9874 49.9871 49.9869 49.9866 49.9864 49.9861 49.9859 49.9856 49.9854 49.9851 49.9849 49.9846 49.9844 49.9841 49.9839 49.9836 49.9834 49.9831 49.9829 49.9826 49.9824 49.9821 49.9819 49.9816 49.9814 49.9811 49.9809 49.9806 49.9804 49.9801 49.9799 49.9796 49.9794 49.9791 49.9789 49.9786 49.9784 49.9781 49.9779 49.9776 49.9774 49.9771 49.9769 49.9766 49.9764 49.9761 49.9759 49.9756 49.9754 49.9751 49.9749 49.9746 49.9744 49.9741 49.9739 49.9736 49.9734 49.9731 49.9729 49.9726 49.9724 49.9721 49.9719 49.9716 49.9714 49.9711 49.9709 49.9706 49.9704 49.9701 49.9699 49.9696 49.9694 49.9691 49.9689 49.9686 49.9684 49.9681 49.9679 49.9676 49.9674 49.9671 49.9669 49.9666 49.9664 49.9661 49.9659 49.9656 49.9654 49.9651 49.9999 49.9996 49.9994 49.9991 49.9989 49.9986 49.9984 49.9981 49.9979 49.9976 49.9974 49.9971 49.9969 49.9966 49.9964 49.9961 49.9959 49.9956 49.9954 49.9951 49.9949 49.9946 49.9944 49.9941 49.9939 49.9936 49.9934 49.9931 49.9929 49.9926 49.9924 49.9921 49.9919 49.9916 49.9914 49.9911 49.9909 49.9906 49.9904 49.9901 49.9899 49.9896 49.9894 49.9891 49.9889 49.9886 49.9884 49.9881 49.9879 49.9876 49.9874 49.9871 49.9869 49.9866 49.9864 49.9861 49.9859 49.9856 49.9854 49.9851 49.9849 49.9846 49.9844 49.9841 49.9839 49.9836 49.9834 49.9831 49.9829 49.9826 49.9824 49.9821 49.9819 49.9816 49.9814 49.9811 49.9809 49.9806 49.9804 49.9801 49.9799 49.9796 49.9794 49.9791 49.9789 49.9786 49.9784 49.9781 49.9779 49.9776 49.9774 49.9771 49.9769 49.9766 49.9764 49.9761 49.9759 49.9756 49.9754 49.9751 49.9749 49.9746 49.9744 49.9741 49.9739 49.9736 49.9734 49.9731 49.9729 49.9726 49.9724 49.9721 49.9719 49.9716 49.9714 49.9711 49.9709 49.9706 49.9704 49.9701 49.9699 49.9696 49.9694 49.9691 49.9689 49.9686 49.9684 49.9681 49.9679 49.9676 49.9674 49.9671 49.9669 49.9666 49.9664 49.9661 49.9659 49.9656 49.9654 49.9651 49.9999 49.9996 49.9994 49.9991 49.9989 49.9986 49.9984 49.9981 49.9979 49.9976 49.9974 49.9971 49.9969 49.9966 49.9964 49.9961 49.9959 49.9956 49.9954 49.9951 49.9949 49.9946 49.9944 49.9941 49.9939 49.9936 49.9934 49.9931 49.9929 49.9926 49.9924 49.9921 49.9919 49.9916 49.9914 49.9911 49.9909 49.9906 49.9904 49.9901 49.9899 49.9896 49.9894 49.9891 49.9889 49.9886 49.9884 49.9881 49.9879 49.9876 49.9874 49.9871 49.9869 49.9866 49.9864 49.9861 49.9859 49.9856 49.9854 49.9851 49.9849 49.9846 49.9844 49.9841 49.9839 49.9836 49.9834 49.9831 49.9829 49.9826 49.9824 49.9821 49.9819 49.9816 49.9814 49.9811 49.9809 49.9806 49.9804 49.9801 49.9799 49.9796 49.9794 49.9791 49.9789 49.9786 49.9784 49.9781 49.9779 49.9776 49.9774 49.9771 49.9769 49.9766 49.9764 49.9761 49.9759 49.9756 49.9754 49.9751 49.9749 49.9746 49.9744 49.9741 49.9739 49.9736 49.9734 49.9731 49.9729 49.9726 49.9724 49.9721 49.9719 49.9716 49.9714 49.9711 49.9709 49.9706 49.9704 49.9701 49.9699 49.9696 49.9694 49.9691 49.9689 49.9686 49.9684 49.9681 49.9679 49.9676 49.9674 49.9671 49.9669 49.9666 49.9664 49.9661 49.9659 49.9656 49.9654 49.9651 49.9999 49.9996 49.9994 49.9991 49.9989 49.9986 49.9984 49.9981 49.9979 49.9976 49.9974 49.9971 49.9969 49.9966 49.9964 49.9961 49.9959 49.9956 49.9954 49.9951 49.9949 49.9946 49.9944 49.9941 49.9939 49.9936 49.9934 49.9931 49.9929 49.9926 49.9924 49.9921 49.9919 49.9916 49.9914 49.9911 49.9909 49.9906 49.9904 49.9901 49.9899 49.9896 49.9894 49.9891 49.9889 49.9886 49.9884 49.9881 49.9879 49.9876 49.9874 49.9871 49.9869 49.9866 49.9864 49.9861 49.9859 49.9856 49.9854 49.9851 49.9849 49.9846 49.9844 49.9841 49.9839 49.9836 49.9834 49.9831 49.9829 49.9826 49.9824 49.9821 49.9819 49.9816 49.9814 49.9811 49.9809 49.9806 49.9804 49.9801 49.9799 49.9796 49.9794 49.9791 49.9789 49.9786 49.9784 49.9781 49.9779 49.9776 49.9774 49.9771 49.9769 49.9766 49.9764 49.9761 49.9759 49.9756 49.9754 49.9751 49.9749 49.9746 49.9744 49.9741 49.9739 49.9736 49.9734 49.9731 49.9729 49.9726 49.9724 49.9721 49.9719 49.9716 49.9714 49.9711 49.9709 49.9706 49.9704 49.9701 49.9699 49.9696 49.9694 49.9691 49.9689 49.9686 49.9684 49.9681 49.9679 49.9676 49.9674 49.9671 49.9669 49.9666 49.9664 49.9661 49.9659 49.9656 49.9654 49.9651 49.9999 49.9996 49.9994 49.9991 49.9989 49.9986 49.9984 49.9981 49.9979 49.9976 49.9974 49.9971 49.9969 49.9966 49.9964 49.9961 49.9959 49.9956 49.9954 49.9951 49.9949 49.9946 49.9944 49.9941 49.9939 49.9936 49.9934 49.9931 49.9929 49.9926 49.9924 49.9921 49.9919 49.9916 49.9914 49.9911 49.9909 49.9906 49.9904 49.9901 49.9899 49.9896 49.9894 49.9891 49.9889 49.9886 49.9884 49.9881 49.9879 49.9876 49.9874 49.9871 49.9869 49.9866 49.9864 49.9861 49.9859 49.9856 49.9854 49.9851 49.9849 49.9846 49.9844 49.9841 49.9839 49.9836 49.9834 49.9831 49.9829 49.9826 49.9824 49.9821 49.9819 49.9816 49.9814 49.9811 49.9809 49.9806 49.9804 49.9801 49.9799 49.9796 49.9794 49.9791 49.9789 49.9786 49.9784 49.9781 49.9779 49.9776 49.9774 49.9771 49.9769 49.9766 49.9764 49.9761 49.9759 49.9756 49.9754 49.9751 49.9749 49.9746 49.9744 49.9741 49.9739 49.9736 49.9734 49.9731 49.9729 49.9726 49.9724 49.9721 49.9719 49.9716 49.9714 49.9711 49.9709 49.9706 49.9704 49.9701 49.9699 49.9696 49.9694 49.9691 49.9689 49.9686 49.9684 49.9681 49.9679 49.9676 49.9674 49.9671 49.9669 49.9666 49.9664 49.9661 49.9659 49.9656 49.9654 49.9651 49.9999 49.9996 49.9994 49.9991 49.9989 49.9986 49.9984 49.9981 49.9979 49.9976 49.9974 49.9971 49.9969 49.9966 49.9964 49.9961 49.9959 49.9956 49.9954 49.9951 49.9949 49.9946 49.9944 49.9941 49.9939 49.9936 49.9934 49.9931 49.9929 49.9926 49.9924 49.9921 49.9919 49.9916 49.9914 49.9911 49.9909 49.9906 49.9904 49.9901 49.9899 49.9896 49.9894 49.9891 49.9889 49.9886 49.9884 49.9881 49.9879 49.9876 49.9874 49.9871 49.9869 49.9866 49.9864 49.9861 49.9859 49.9856 49.9854 49.9851 49.9849 49.9846 49.9844 49.9841 49.9839 49.9836 49.9834 49.9831 49.9829 49.9826 49.9824 49.9821 49.9819 49.9816 49.9814 49.9811 49.9809 49.9806 49.9804 49.9801 49.9799 49.9796 49.9794 49.9791 49.9789 49.9786 49.9784 49.9781 49.9779 49.9776 49.9774 49.9771 49.9769 49.9766 49.9764 49.9761 49.9759 49.9756 49.9754 49.9751 49.9749 49.9746 49.9744 49.9741 49.9739 49.9736 49.9734 49.9731 49.9729 49.9726 49.9724 49.9721 49.9719 49.9716 49.9714 49.9711 49.9709 49.9706 49.9704 49.9701 49.9699 49.9696 49.9694 49.9691 49.9689 49.9686 49.9684 49.9681 49.9679 49.9676 49.9674 49.9671 49.9669 49.9666 49.9664 49.9661 49.9659 49.9656 49.9654 49.9651 49.9999 49.9996 49.9994 49.9991 49.9989 49.9986 49.9984 49.9981 49.9979 49.9976 49.9974 49.9971 49.9969 49.9966 49.9964 49.9961 49.9959 49.9956 49.9954 49.9951 49.9949 49.9946 49.9944 49.9941 49.9939 49.9936 49.9934 49.9931 49.9929 49.9926 49.9924 49.9921 49.9919 49.9916 49.9914 49.9911 49.9909 49.9906 49.9904 49.9901 49.9899 49.9896 49.9894 49.9891 49.9889 49.9886 49.9884 49.9881 49.9879 49.9876 49.9874 49.9871 49.9869 49.9866 49.9864 49.9861 49.9859 49.9856 49.9854 49.9851 49.9849 49.9846 49.9844 49.9841 49.9839 49.9836 49.9834 49.9831 49.9829 49.9826 49.9824 49.9821 49.9819 49.9816 49.9814 49.9811 49.9809 49.9806 49.9804 49.9801 49.9799 49.9796 49.9794 49.9791 49.9789 49.9786 49.9784 49.9781 49.9779 49.9776 49.9774 49.9771 49.9769 49.9766 49.9764 49.9761 49.9759 49.9756 49.9754 49.9751 49.9749 49.9746 49.9744 49.9741 49.9739 49.9736 49.9734 49.9731 49.9729 49.9726 49.9724 49.9721 49.9719 49.9716 49.9714 49.9711 49.9709 49.9706 49.9704 49.9701 49.9699 49.9696 49.9694 49.9691 49.9689 49.9686 49.9684 49.9681 49.9679 49.9676 49.9674 49.9671 49.9669 49.9666 49.9664 49.9661 49.9659 49.9656 49.9654 49.9651 49.9999 49.9996 49.9994 49.9991 49.9989 49.9986 49.9984 49.9981 49.9979 49.9976 49.9974 49.9971 49.9969 49.9966 49.9964 49.9961 49.9959 49.9956 49.9954 49.9951 49.9949 49.9946 49.9944 49.9941 49.9939 49.9936 49.9934 49.9931 49.9929 49.9926 49.9924 49.9921 49.9919 49.9916 49.9914 49.9911 49.9909 49.9906 49.9904 49.9901 49.9899 49.9896 49.9894 49.9891 49.9889 49.9886 49.9884 49.9881 49.9879 49.9876 49.9874 49.9871 49.9869 49.9866 49.9864 49.9861 49.9859 49.9856 49.9854 49.9851 49.9849 49.9846 49.9844 49.9841 49.9839 49.9836 49.9834 49.9831 49.9829 49.9826 49.9824 49.9821 49.9819 49.9816 49.9814 49.9811 49.9809 49.9806 49.9804 49.9801 49.9799 49.9796 49.9794 49.9791 49.9789 49.9786 49.9784 49.9781 49.9779 49.9776 49.9774 49.9771 49.9769 49.9766 49.9764 49.9761 49.9759 49.9756 49.9754 49.9751 49.9749 49.9746 49.9744 49.9741 49.9739 49.9736 49.9734 49.9731 49.9729 49.9726 49.9724 49.9721 49.9719 49.9716 49.9714 49.9711 49.9709 49.9706 49.9704 49.9701 49.9699 49.9696 49.9694 49.9691 49.9689 49.9686 49.9684 49.9681 49.9679 49.9676 49.9674 49.9671 49.9669 49.9666 49.9664 49.9661 49.9659 49.9656 49.9654 49.9651 
SCALARS h double 1
LOOKUP_TABLE default
0 0 0 0 0 0 0 0 0 0 0 0 0 0 0 0 0 0 0 0 0 0 0 0 0 0 0 0 0 0 0 0 0 0 0 0 0 0 0 0 0 0 0 0 0 0 0 0 0 0 0 0 0 0 0 0 0 0 0 0 0 0 0 0 0 0 0 0 0 0 0 0 0 0 0 0 0 0 0 0 0 0 0 0 0 0 0 0 0 0 0 0 0 0 0 0 0 0 0 0 0 0 0 0 0 0 0 0 0 0 0 0 0 0 0 0 0 0 0 0 0 0 0 0 0 0 0 0 0 0 0 0 0 0 0 0 0 0 0 0 0 0 0 0 0 0 0 0 0 0 0 0 0 0 0 0 0 0 0 0 0 0 0 0 0 0 0 0 0 0 0 0 0 0 0 0 0 0 0 0 0 0 0 0 0 0 0 0 0 0 0 0 0 0 0 0 0 0 0 0 0 0 0 0 0 0 0 0 0 0 0 0 0 0 0 0 0 0 0 0 0 0 0 0 0 0 0 0 0 0 0 0 0 0 0 0 0 0 0 0 0 0 0 0 0 0 0 0 0 0 0 0 0 0 0 0 0 0 0 0 0 0 0 0 0 0 0 0 0 0 0 0 0 0 0 0 0 0 0 0 0 0 0 0 0 0 0 0 0 0 0 0 0 0 0 0 0 0 0 0 0 0 0 0 0 0 0 0 0 0 0 0 0 0 0 0 0 0 0 0 0 0 0 0 0 0 0 0 0 0 0 0 0 0 0 0 0 0 0 0 0 0 0 0 0 0 0 0 0 0 0 0 0 0 0 0 0 0 0 0 0 0 0 0 0 0 0 0 0 0 0 0 0 0 0 0 0 0 0 0 0 0 0 0 0 0 0 0 0 0 0 0 0 0 0 0 0 0 0 0 0 0 0 0 0 0 0 0 0 0 0 0 0 0 0 0 0 0 0 0 0 0 0 0 0 0 0 0 0 0 0 0 0 0 0 0 0 0 0 0 0 0 0 0 0 0 0 0 0 0 0 0 0 0 0 0 0 0 0 0 0 0 0 0 0 0 0 0 0 0 0 0 0 0 0 0 0 0 0 0 0 0 0 0 0 0 0 0 0 0 0 0 0 0 0 0 0 0 0 0 0 0 0 0 0 0 0 0 0 0 0 0 0 0 0 0 0 0 0 0 0 0 0 0 0 0 0 0 0 0 0 0 0 0 0 0 0 0 0 0 0 0 0 0 0 0 0 0 0 0 0 0 0 0 0 0 0 0 0 0 0 0 0 0 0 0 0 0 0 0 0 0 0 0 0 0 0 0 0 0 0 0 0 0 0 0 0 0 0 0 0 0 0 0 0 0 0 0 0 0 0 0 0 0 0 0 0 0 0 0 0 0 0 0 0 0 0 0 0 0 0 0 0 0 0 0 0 0 0 0 0 0 0 0 0 0 0 0 0 0 0 0 0 0 0 0 0 0 0 0 0 0 0 0 0 0 0 0 0 0 0 0 0 0 0 0 0 0 0 0 0 0 0 0 0 0 0 0 0 0 0 0 0 0 0 0 0 0 0 0 0 0 0 0 0 0 0 0 0 0 0 0 0 0 0 0 0 0 0 0 0 0 0 0 0 0 0 0 0 0 0 0 0 0 0 0 0 0 0 0 0 0 0 0 0 0 0 0 0 0 0 0 0 0 0 0 0 0 0 0 0 0 0 0 0 0 0 0 0 0 0 0 0 0 0 0 0 0 0 0 0 0 0 0 0 0 0 0 0 0 0 0 0 0 0 0 0 0 0 0 0 0 0 0 0 0 0 0 0 0 0 0 0 0 0 0 0 0 0 0 0 0 0 0 0 0 0 0 0 0 0 0 0 0 0 0 0 0 0 0 0 0 0 0 0 0 0 0 0 0 0 0 0 0 0 0 0 0 0 0 0 0 0 0 0 0 0 0 0 0 0 0 0 0 0 0 0 0 0 0 0 0 0 0 0 0 0 0 0 0 0 0 0 0 0 0 0 0 0 0 0 0 0 0 0 0 0 0 0 0 0 0 0 0 0 0 0 0 0 0 0 0 0 0 0 0 0 0 0 0 0 0 0 0 0 0 0 0 0 0 0 0 0 0 0 0 0 0 0 0 0 0 0 0 0 0 0 0 0 0 0 0 0 0 0 0 0 0 0 0 0 0 0 0 0 0 0 0 0 0 0 0 0 0 0 0 0 0 0 0 0 0 0 0 0 0 0 0 0 0 0 0 0 0 0 0 0 0 0 0 0 0 0 0 0 0 0 0 0 0 0 0 0 0 0 0 0 0 0 0 0 0 0 0 0 0 0 0 0 0 0 0 0 0 0 0 0 0 0 0 0 0 0 0 0 0 0 0 0 0 0 0 0 0 0 0 0 0 0 0 0 0 0 0 0 0 0 0 0 0 0 0 0 0 0 0 0 0 0 0 0 0 0 0 0 0 0 0 0 0 0 0 0 0 0 0 0 0 0 0 0 0 0 0 0 0 0 0 0 0 0 0 0 0 0 0 0 0 0 0 0 0 0 0 0 0 0 0 0 0 0 0 0 0 0 0 0 0 0 0 0 0 0 0 0 0 0 0 0 0 0 0 0 0 0 0 0 0 0 0 0 0 0 0 0 0 0 0 0 0 0 0 0 0 0 0 0 0 0 0 0 0 0 0 0 0 0 0 0 0 0 0 0 0 0 0 0 0 0 0 0 0 0 0 0 0 0 0 0 0 0 0 0 0 0 0 0 0 0 0 0 0 0 0 0 0 0 0 0 0 0 0 0 0 0 0 0 0 0 0 0 0 0 0 0 0 0 0 0 0 0 0 0 0 0 0 0 0 0 0 0 0 0 0 0 0 0 0 0 0 0 0 0 0 0 0 0 0 0 0 0 0 0 0 0 0 0 0 0 0 0 0 0 0 0 0 0 0 0 0 0 0 0 0 0 0 0 0 0 0 0 0 0 0 0 0 0 0 0 0 0 0 0 0 0 0 0 0 0 0 0 0 0 0 0 0 0 0 0 0 0 0 0 0 0 0 0 0 0 0 0 0 0 0 0 0 0 0 0 0 0 0 0 0 0 0 0 0 0 0 0 0 0 0 0 0 0 0 0 0 0 0 0 0 0 0 0 0 0 0 0 0 0 0 0 0 0 0 0 0 0 0 0 0 0 0 0 0 0 0 0 0 0 0 0 0 0 0 0 0 0 0 0 0 0 0 0 0 0 0 0 0 0 0 0 0 0 0 0 0 0 0 0 0 0 0 0 0 0 0 0 0 0 0 0 0 0 0 0 0 0 0 0 0 0 0 0 0 0 0 0 0 0 0 0 0 0 0 0 0 0 0 0 0 0 0 0 0 0 0 0 0 0 0 0 0 0 0 0 0 0 0 0 0 0 0 0 0 0 0 0 0 0 0 0 0 0 0 0 0 0 0 0 0 0 0 0 0 0 0 0 0 0 0 0 0 0 0 0 0 0 0 0 0 0 0 0 0 0 0 0 0 0 0 0 0 0 0 0 0 0 0 0 0 0 0 0 0 0 0 0 0 0 0 0 0 0 0 0 0 0 0 0 0 0 0 0 0 0 0 0 0 0 0 0 0 0 0 0 0 0 0 0 0 0 0 0 0 0 0 0 0 0 0 0 0 0 0 0 0 0 0 0 0 0 0 0 0 0 0 0 0 0 0 0 0 0 0 0 0 0 0 0 0 0 0 0 0 0 0 0 0 0 0 0 0 0 0 0 0 0 0 0 0 0 0 0 0 0 0 0 0 0 0 0 0 0 0 0 0 0 0 0 0 0 0 0 0 0 0 0 0 0 0 0 0 0 0 0 0 0 0 0 0 0 0 0 0 0 0 0 0 0 0 0 0 0 0 0 0 0 0 0 0 0 0 0 0 0 0 0 0 0 0 0 0 0 0 0 0 0 0 0 0 0 0 0 0 0 0 0 0 0 0 0 0 0 0 0 0 0 0 0 0 0 0 0 0 0 0 0 0 0 0 0 0 0 0 0 0 0 0 0 0 0 0 0 0 0 0 0 0 0 0 0 0 0 0 0 0 0 0 0 0 0 0 0 0 0 0 0 0 0 0 0 0 0 0 0 0 0 0 0 0 0 0 0 0 0 0 0 0 0 0 0 0 0 0 0 0 0 0 0 0 0 0 0 0 0 0 0 0 0 0 0 0 0 0 0 0 0 0 0 0 0 0 0 0 0 0 0 0 0 0 0 0 0 0 0 0 0 0 0 0 0 0 0 0 0 0 0 0 0 0 0 0 0 0 0 0 0 0 0 0 0 0 0 0 0 0 0 0 0 0 0 0 0 0 0 0 0 0 0 0 0 0 0 0 0 0 0 0 0 0 0 0 0 0 0 0 0 0 0 0 0 0 0 0 0 0 0 0 0 0 0 0 0 0 0 0 0 0 0 0 0 0 0 0 0 0 0 0 0 0 0 0 0 0 0 0 0 0 0 0 0 0 0 0 0 0 0 0 0 0 0 0 0 0 0 0 0 0 0 0 0 0 0 0 0 0 0 0 0 0 0 0 0 0 0 0 0 0 0 0 0 0 0 0 0 0 0 0 0 0 0 0 0 0 0 0 0 0 0 0 0 0 0 0 0 0 0 0 0 0 0 0 0 0 0 0 0 0 0 0 0 0 0 0 0 0 0 0 0 0 0 0 0 0 0 0 0 0 0 0 0 0 0 0 0 0 0 0 0 0 0 0 0 0 0 0 0 0 0 0 0 0 0 0 0 0 0 0 0 0 0 0 0 0 0 0 0 0 0 0 0 0 0 0 0 0 0 0 0 0 0 0 0 0 0 0 0 0 0 0 0 0 0 0 0 0 0 0 0 0 0 0 0 0 0 0 0 0 0 0 0 0 0 0 0 0 0 0 0 0 0 0 0 0 0 0 0 0 0 0 0 0 0 0 0 0 0 0 0 0 0 0 0 0 0 0 0 0 0 0 0 0 0 0 0 0 0 0 0 0 0 0 0 0 0 0 0 0 0 0 0 0 0 0 0 0 0 0 0 0 0 0 0 0 0 0 0 0 0 0 0 0 0 0 0 0 0 0 0 0 0 0 0 0 0 0 0 0 0 0 0 0 0 0 0 0 0 0 0 0 0 0 0 0 0 0 0 0 0 0 0 0 0 0 0 0 0 0 0 0 0 0 0 0 0 0 0 0 0 0 0 0 0 0 0 0 0 0 0 0 0 0 0 0 0 0 0 0 0 0 0 0 0 0 0 0 0 0 0 0 0 0 0 0 0 0 0 0 0 0 0 0 0 0 0 0 0 0 0 0 0 0 0 0 0 0 0 0 0 0 0 0 0 0 0 0 0 0 0 0 0 0 0 0 0 0 0 0 0 0 0 0 0 0 0 0 0 0 0 0 0 0 0 0 0 0 0 0 0 0 0 0 0 0 0 0 0 0 0 0 0 0 0 0 0 0 0 0 0 0 0 0 0 0 0 0 0 0 0 0 0 0 0 0 0 0 0 0 0 0 0 0 0 0 0 0 0 0 0 0 0 0 0 0 0 0 0 0 0 0 0 0 0 0 0 0 0 0 0 0 0 0 0 0 0 0 0 0 0 0 0 0 0 0 0 0 0 0 0 0 0 0 0 0 0 0 0 0 0 0 0 0 0 0 0 0 0 0 0 0 0 0 0 0 0 0 0 0 0 0 0 0 0 0 0 0 0 0 0 0 0 0 0 0 0 0 0 0 0 0 0 0 0 0 0 0 0 0 0 0 0 0 0 0 0 0 0 0 0 0 0 0 0 0 0 0 0 0 0 0 0 0 0 0 0 0 0 0 0 0 0 0 0 0 0 0 0 0 0 0 0 0 0 0 0 0 0 0 0 0 0 0 0 0 0 0 0 0 0 0 0 0 0 0 0 0 0 0 0 0 0 0 0 0 0 0 0 0 0 0 0 0 0 0 0 0 0 0 0 0 0 0 0 0 0 0 0 0 0 0 0 0 0 0 0 0 0 0 0 0 0 0 0 0 0 0 0 0 0 0 0 0 0 0 0 0 0 0 0 0 0 0 0 0 0 0 0 0 0 0 0 0 0 0 0 0 0 0 0 0 0 0 0 0 0 0 0 0 0 0 0 0 0 0 0 0 0 0 0 0 0 0 0 0 0 0 0 0 0 0 0 0 0 0 0 0 0 0 0 0 0 0 0 0 0 0 0 0 0 0 0 0 0 0 0 0 0 0 0 0 0 0 0 0 0 0 0 0 0 0 0 0 0 0 0 0 0 0 0 0 0 0 0 0 0 0 0 0 0 0 0 0 0 0 0 0 
SCALARS u double 1
LOOKUP_TABLE default